
    -----------------------------------------------------------------------
          Psi4: An Open-Source Ab Initio Electronic Structure Package
                               Psi4 1.3.2 release

                         Git: Rev {} zzzzzzz 


    R. M. Parrish, L. A. Burns, D. G. A. Smith, A. C. Simmonett,
    A. E. DePrince III, E. G. Hohenstein, U. Bozkaya, A. Yu. Sokolov,
    R. Di Remigio, R. M. Richard, J. F. Gonthier, A. M. James,
    H. R. McAlexander, A. Kumar, M. Saitow, X. Wang, B. P. Pritchard,
    P. Verma, H. F. Schaefer III, K. Patkowski, R. A. King, E. F. Valeev,
    F. A. Evangelista, J. M. Turney, T. D. Crawford, and C. D. Sherrill,
    J. Chem. Theory Comput. 13(7) pp 3185--3197 (2017).
    (doi: 10.1021/acs.jctc.7b00174)


                         Additional Contributions by
    P. Kraus, H. Kruse, M. H. Lechner, M. C. Schieber, R. A. Shaw,
    A. Alenaizan, R. Galvelis, Z. L. Glick, S. Lehtola, and J. P. Misiewicz

    -----------------------------------------------------------------------


    Psi4 started on: Friday, 29 September 2023 12:01PM

    Process ID: 39187
    Host:       DFSM
    PSIDATADIR: /usr/share/psi4
    Memory:     500.0 MiB
    Threads:    1
    
  ==> Input File <==

--------------------------------------------------------------------------
mol = psi4.core.Molecule.from_arrays(
elez=[6, 6, 1, 1, 1, 8, 1, 1, 6, 6, 1, 1, 1, 8, 1, 1, 6, 1, 1],
fragment_separators=[8, 16],
fix_com=True,
fix_orientation=True,
fix_symmetry='c1',
fragment_multiplicities=[2, 2, 1],
molecular_charge=0,
molecular_multiplicity=1,
geom=[
             2.51268 ,       -0.79503 ,       -0.22006 ,
             1.23732 ,        0.03963 ,       -0.27676 ,
             2.46159 ,       -1.62117 ,       -0.94759 ,
             2.64341 ,       -1.21642 ,        0.78902 ,
             3.39794 ,       -0.18468 ,       -0.46590 ,
             1.26614 ,        1.11169 ,        0.70005 ,
             2.10603 ,        1.58188 ,        0.59592 ,
             1.13110 ,        0.48209 ,       -1.28412 ,

            -1.26007 ,        0.07291 ,        0.27398 ,
            -2.53390 ,       -0.75742 ,        0.20501 ,
            -2.48461 ,       -1.59766 ,        0.91610 ,
            -2.65872 ,       -1.16154 ,       -0.81233 ,
            -3.41092 ,       -0.13922 ,        0.44665 ,
            -1.38660 ,        1.11180 ,       -0.71748 ,
            -1.17281 ,        0.53753 ,        1.27129 ,
            -0.70002 ,        1.76332 ,       -0.50799 ,

            -0.01090 ,       -0.78649 ,        0.02607 ,
             0.17071 ,       -1.41225 ,        0.91863 ,
            -0.19077 ,       -1.46135 ,       -0.82966 ])
activate(mol)

# => Standard Options <= #

set {
basis jun-cc-pVDZ
scf_type disk_df
guess sad
freeze_core true
fisapt_do_plot true
}

energy('fisapt0') 

Eelst = psi4.variable("SAPT ELST ENERGY")
Eexch = psi4.variable("SAPT EXCH ENERGY")
Eind  = psi4.variable("SAPT IND ENERGY")
Edisp = psi4.variable("SAPT DISP ENERGY")
ET    = psi4.variable("SAPT0 TOTAL ENERGY")
--------------------------------------------------------------------------

*** tstart() called on DFSM
*** at Fri Sep 29 12:01:39 2023

   => Loading Basis Set <=

    Name: JUN-CC-PVDZ
    Role: ORBITAL
    Keyword: BASIS
    atoms 1-2, 9-10, 17                 entry C          line   164 file /usr/share/psi4/basis/jun-cc-pvdz.gbs 
    atoms 3-5, 7-8, 11-13, 15-16, 18-19 entry H          line    36 file /usr/share/psi4/basis/jun-cc-pvdz.gbs 
    atoms 6, 14                         entry O          line   232 file /usr/share/psi4/basis/jun-cc-pvdz.gbs 


         ---------------------------------------------------------
                                   SCF
               by Justin Turney, Rob Parrish, Andy Simmonett
                          and Daniel G. A. Smith
                              RHF Reference
                        1 Threads,    500 MiB Core
         ---------------------------------------------------------

  ==> Geometry <==

    Molecular point group: c1
    Full point group: C1

    Geometry (in Angstrom), charge = 0, multiplicity = 1:

       Center              X                  Y                   Z               Mass       
    ------------   -----------------  -----------------  -----------------  -----------------
         C            2.512680000000    -0.795030000000    -0.220060000000    12.000000000000
         C            1.237320000000     0.039630000000    -0.276760000000    12.000000000000
         H            2.461590000000    -1.621170000000    -0.947590000000     1.007825032230
         H            2.643410000000    -1.216420000000     0.789020000000     1.007825032230
         H            3.397940000000    -0.184680000000    -0.465900000000     1.007825032230
         O            1.266140000000     1.111690000000     0.700050000000    15.994914619570
         H            2.106030000000     1.581880000000     0.595920000000     1.007825032230
         H            1.131100000000     0.482090000000    -1.284120000000     1.007825032230
         C           -1.260070000000     0.072910000000     0.273980000000    12.000000000000
         C           -2.533900000000    -0.757420000000     0.205010000000    12.000000000000
         H           -2.484610000000    -1.597660000000     0.916100000000     1.007825032230
         H           -2.658720000000    -1.161540000000    -0.812330000000     1.007825032230
         H           -3.410920000000    -0.139220000000     0.446650000000     1.007825032230
         O           -1.386600000000     1.111800000000    -0.717480000000    15.994914619570
         H           -1.172810000000     0.537530000000     1.271290000000     1.007825032230
         H           -0.700020000000     1.763320000000    -0.507990000000     1.007825032230
         C           -0.010900000000    -0.786490000000     0.026070000000    12.000000000000
         H            0.170710000000    -1.412250000000     0.918630000000     1.007825032230
         H           -0.190770000000    -1.461350000000    -0.829660000000     1.007825032230

  Running in c1 symmetry.

  Rotational constants: A =      0.15638  B =      0.05076  C =      0.04387 [cm^-1]
  Rotational constants: A =   4688.12886  B =   1521.72797  C =   1315.24313 [MHz]
  Nuclear repulsion =  336.716535251615198

  Charge       = 0
  Multiplicity = 1
  Electrons    = 58
  Nalpha       = 29
  Nbeta        = 29

  ==> Algorithm <==

  SCF Algorithm Type is DISK_DF.
  DIIS enabled.
  MOM disabled.
  Fractional occupation disabled.
  Guess Type is SAD.
  Energy threshold   = 1.00e-08
  Density threshold  = 1.00e-08
  Integral threshold = 0.00e+00

  ==> Primary Basis <==

  Basis Set: JUN-CC-PVDZ
    Blend: JUN-CC-PVDZ
    Number of shells: 92
    Number of basis function: 186
    Number of Cartesian functions: 193
    Spherical Harmonics?: true
    Max angular momentum: 2

   => Loading Basis Set <=

    Name: (JUN-CC-PVDZ AUX)
    Role: JKFIT
    Keyword: DF_BASIS_SCF
    atoms 1-2, 9-10, 17                 entry C          line   146 file /usr/share/psi4/basis/jun-cc-pvdz-jkfit.gbs 
    atoms 3-5, 7-8, 11-13, 15-16, 18-19 entry H          line    70 file /usr/share/psi4/basis/jun-cc-pvdz-jkfit.gbs 
    atoms 6, 14                         entry O          line   258 file /usr/share/psi4/basis/jun-cc-pvdz-jkfit.gbs 

  ==> Pre-Iterations <==

   -------------------------------------------------------
    Irrep   Nso     Nmo     Nalpha   Nbeta   Ndocc  Nsocc
   -------------------------------------------------------
     A        186     186       0       0       0       0
   -------------------------------------------------------
    Total     186     186      29      29      29       0
   -------------------------------------------------------

  ==> Integral Setup <==

  ==> DiskDFJK: Density-Fitted J/K Matrices <==

    J tasked:                  Yes
    K tasked:                  Yes
    wK tasked:                  No
    OpenMP threads:              1
    Integrals threads:           1
    Memory [MiB]:              375
    Algorithm:                Core
    Integral Cache:           NONE
    Schwarz Cutoff:          1E-12
    Fitting Condition:       1E-10

   => Auxiliary Basis Set <=

  Basis Set: (JUN-CC-PVDZ AUX)
    Blend: JUN-CC-PVDZ-JKFIT
    Number of shells: 297
    Number of basis function: 829
    Number of Cartesian functions: 937
    Spherical Harmonics?: true
    Max angular momentum: 3

  Minimum eigenvalue in the overlap matrix is 8.5003563600E-05.
  Using Symmetric Orthogonalization.

  SCF Guess: Superposition of Atomic Densities via on-the-fly atomic UHF.

  ==> Iterations <==

                           Total Energy        Delta E     RMS |[F,P]|

   @DF-RHF iter SAD:  -345.20750904669461   -3.45208e+02   0.00000e+00 
   @DF-RHF iter   1:  -345.80398221284275   -5.96473e-01   3.73356e-03 DIIS
   @DF-RHF iter   2:  -346.02947835582972   -2.25496e-01   1.86853e-03 DIIS
   @DF-RHF iter   3:  -346.08016169905648   -5.06833e-02   3.50464e-04 DIIS
   @DF-RHF iter   4:  -346.08320338018757   -3.04168e-03   1.23220e-04 DIIS
   @DF-RHF iter   5:  -346.08350836573425   -3.04986e-04   2.11804e-05 DIIS
   @DF-RHF iter   6:  -346.08352180645261   -1.34407e-05   5.71777e-06 DIIS
   @DF-RHF iter   7:  -346.08352289417758   -1.08772e-06   1.86549e-06 DIIS
   @DF-RHF iter   8:  -346.08352300539468   -1.11217e-07   5.03953e-07 DIIS
   @DF-RHF iter   9:  -346.08352301793843   -1.25438e-08   1.38066e-07 DIIS
   @DF-RHF iter  10:  -346.08352301848515   -5.46720e-10   5.65168e-08 DIIS
   @DF-RHF iter  11:  -346.08352301857576   -9.06084e-11   1.12295e-08 DIIS
   @DF-RHF iter  12:  -346.08352301858088   -5.11591e-12   3.21719e-09 DIIS
  Energy and wave function converged.


  ==> Post-Iterations <==

    Orbital Energies [Eh]
    ---------------------

    Doubly Occupied:                                                      

       1A    -20.575181     2A    -20.550680     3A    -11.293394  
       4A    -11.276970     5A    -11.238066     6A    -11.228911  
       7A    -11.217801     8A     -1.369216     9A     -1.344052  
      10A     -1.067659    11A     -1.012211    12A     -0.936435  
      13A     -0.825459    14A     -0.777478    15A     -0.709913  
      16A     -0.679280    17A     -0.645815    18A     -0.622746  
      19A     -0.578131    20A     -0.559837    21A     -0.546190  
      22A     -0.537963    23A     -0.531668    24A     -0.519442  
      25A     -0.513188    26A     -0.487131    27A     -0.459618  
      28A     -0.447198    29A     -0.423742  

    Virtual:                                                              

      30A      0.055427    31A      0.063826    32A      0.072034  
      33A      0.082902    34A      0.095809    35A      0.100981  
      36A      0.115125    37A      0.117992    38A      0.129157  
      39A      0.133846    40A      0.146680    41A      0.150011  
      42A      0.158912    43A      0.167447    44A      0.190624  
      45A      0.215554    46A      0.230079    47A      0.243368  
      48A      0.249709    49A      0.256671    50A      0.263745  
      51A      0.271019    52A      0.282879    53A      0.292171  
      54A      0.302689    55A      0.308551    56A      0.320281  
      57A      0.328060    58A      0.335477    59A      0.344240  
      60A      0.355033    61A      0.372782    62A      0.388807  
      63A      0.395779    64A      0.408021    65A      0.418980  
      66A      0.421625    67A      0.443717    68A      0.452016  
      69A      0.456400    70A      0.467225    71A      0.479679  
      72A      0.508420    73A      0.527109    74A      0.535045  
      75A      0.548052    76A      0.708903    77A      0.719278  
      78A      0.728637    79A      0.749376    80A      0.797577  
      81A      0.801817    82A      0.829293    83A      0.844855  
      84A      0.859741    85A      0.874542    86A      0.895597  
      87A      0.904883    88A      0.913303    89A      0.935148  
      90A      0.947165    91A      0.957742    92A      0.965318  
      93A      0.989148    94A      1.006412    95A      1.019650  
      96A      1.029962    97A      1.047761    98A      1.068284  
      99A      1.083234   100A      1.098397   101A      1.112854  
     102A      1.136547   103A      1.152140   104A      1.179624  
     105A      1.239729   106A      1.291845   107A      1.368246  
     108A      1.410257   109A      1.435642   110A      1.469623  
     111A      1.479675   112A      1.500773   113A      1.513288  
     114A      1.541014   115A      1.554036   116A      1.570222  
     117A      1.598206   118A      1.622765   119A      1.671104  
     120A      1.677605   121A      1.687776   122A      1.700537  
     123A      1.716352   124A      1.730574   125A      1.759669  
     126A      1.811618   127A      1.847979   128A      1.865540  
     129A      1.881108   130A      1.905715   131A      1.909761  
     132A      1.927271   133A      1.946114   134A      1.949795  
     135A      1.951328   136A      1.985653   137A      2.001207  
     138A      2.026991   139A      2.033165   140A      2.047374  
     141A      2.057783   142A      2.069245   143A      2.083058  
     144A      2.106676   145A      2.143852   146A      2.165724  
     147A      2.173152   148A      2.208872   149A      2.261251  
     150A      2.308686   151A      2.323392   152A      2.332061  
     153A      2.346867   154A      2.391594   155A      2.427213  
     156A      2.433970   157A      2.488652   158A      2.513319  
     159A      2.520353   160A      2.537931   161A      2.588352  
     162A      2.607175   163A      2.628795   164A      2.649966  
     165A      2.665360   166A      2.678872   167A      2.773616  
     168A      2.803993   169A      2.824750   170A      2.833303  
     171A      2.855527   172A      2.857639   173A      2.909158  
     174A      2.949134   175A      3.018644   176A      3.041595  
     177A      3.308358   178A      3.343570   179A      3.379423  
     180A      3.414110   181A      3.483493   182A      3.530783  
     183A      3.663402   184A      3.706082   185A      4.151856  
     186A      4.171697  

    Final Occupation by Irrep:
              A 
    DOCC [    29 ]

  @DF-RHF Final Energy:  -346.08352301858088

   => Energetics <=

    Nuclear Repulsion Energy =            336.7165352516151984
    One-Electron Energy =               -1139.6493646443282159
    Two-Electron Energy =                 456.8493063741321976
    Total Energy =                       -346.0835230185808769

Computation Completed


Properties will be evaluated at   0.000000,   0.000000,   0.000000 [a0]

Properties computed using the SCF density matrix

  Nuclear Dipole Moment: [e a0]
     X:     0.0001      Y:     0.0001      Z:     0.0000

  Electronic Dipole Moment: [e a0]
     X:     1.0646      Y:    -0.3080      Z:     0.0844

  Dipole Moment: [e a0]
     X:     1.0646      Y:    -0.3079      Z:     0.0845     Total:     1.1115

  Dipole Moment: [D]
     X:     2.7061      Y:    -0.7826      Z:     0.2147     Total:     2.8251


*** tstop() called on DFSM at Fri Sep 29 12:01:46 2023
Module time:
	user time   =      28.32 seconds =       0.47 minutes
	system time =      54.51 seconds =       0.91 minutes
	total time  =          7 seconds =       0.12 minutes
Total time:
	user time   =      28.32 seconds =       0.47 minutes
	system time =      54.51 seconds =       0.91 minutes
	total time  =          7 seconds =       0.12 minutes
  Constructing Basis Sets for FISAPT...

   => Loading Basis Set <=

    Name: (JUN-CC-PVDZ AUX)
    Role: JKFIT
    Keyword: DF_BASIS_SCF
    atoms 1-2, 9-10, 17                 entry C          line   146 file /usr/share/psi4/basis/jun-cc-pvdz-jkfit.gbs 
    atoms 3-5, 7-8, 11-13, 15-16, 18-19 entry H          line    70 file /usr/share/psi4/basis/jun-cc-pvdz-jkfit.gbs 
    atoms 6, 14                         entry O          line   258 file /usr/share/psi4/basis/jun-cc-pvdz-jkfit.gbs 

   => Loading Basis Set <=

    Name: (JUN-CC-PVDZ AUX)
    Role: RIFIT
    Keyword: DF_BASIS_SAPT
    atoms 1-2, 9-10, 17                 entry C          line   100 file /usr/share/psi4/basis/jun-cc-pvdz-ri.gbs 
    atoms 3-5, 7-8, 11-13, 15-16, 18-19 entry H          line    30 file /usr/share/psi4/basis/jun-cc-pvdz-ri.gbs 
    atoms 6, 14                         entry O          line   188 file /usr/share/psi4/basis/jun-cc-pvdz-ri.gbs 

   => Loading Basis Set <=

    Name: CC-PVTZ-MINAO
    Role: ORBITAL
    Keyword: BASIS
    atoms 1-2, 9-10, 17                 entry C          line   119 file /usr/share/psi4/basis/cc-pvtz-minao.gbs 
    atoms 3-5, 7-8, 11-13, 15-16, 18-19 entry H          line    20 file /usr/share/psi4/basis/cc-pvtz-minao.gbs 
    atoms 6, 14                         entry O          line   179 file /usr/share/psi4/basis/cc-pvtz-minao.gbs 

	 --------------------------------------------
	                    FISAPT0                  
	                  Rob Parrish                
	 --------------------------------------------

    Do F-SAPT =         Yes
    Do Plot   =         Yes
    Memory    =       0.055 [GD]

  ==> Localization (IBO) <==

  ==> IBO Localizer 2 <==

    MinAO Basis = CC-PVTZ-MINAO
    Use Ghosts  =       FALSE
    Use Stars   =       FALSE
    Condition   =   1.000E-07
    Power       =           4
    Convergence =   1.000E-12
    Maxiter     =         200

    @IBO Iter:                   Metric       Gradient
    @IBO    1:   1.6466671722431989E+00   1.258019E+00
    @IBO    2:   1.8364020804911649E+00   1.447829E+00
    @IBO    3:   1.9037970715026185E+00   7.425155E-01
    @IBO    4:   1.9109225362284759E+00   8.791825E-02
    @IBO    5:   1.9109933958860479E+00   4.490520E-03
    @IBO    6:   1.9109935602048562E+00   1.161729E-05
    @IBO    7:   1.9109935602064818E+00   1.548033E-07
    @IBO    8:   1.9109935602064825E+00   9.960995E-10
    @IBO    9:   1.9109935602064827E+00   6.645746E-12
    @IBO   10:   1.9109935602064823E+00   7.619764E-14

    IBO Localizer 2 converged.

  ==> Partitioning <==

   => Atomic Partitioning <= 

    Monomer A:   8 atoms
    Monomer B:   8 atoms
    Monomer C:   3 atoms

   => Link Bond Identification <=

    Link Bond Selection = AUTOMATIC

    Charge Completeness = 0.800

    Total Link Bonds = 2

    --------------------------
    N     Orb Type Aind1 Aind2
    --------------------------
    1      10   AC     2    17
    2      19   BC     9    17
    --------------------------

   => Link Bond Assignment <=

    Link Bond Assignment      = C

   => Partition Summary <=

    Monomer A:  0 charge,  24 protons,  24 electrons,  12 docc
    Monomer B:  0 charge,  24 protons,  24 electrons,  12 docc
    Monomer C:  0 charge,  10 protons,  10 electrons,   5 docc

  ==> Overlap Integrals <==

  ==> Kinetic Integrals <==

  ==> Nuclear Integrals <==

    Nuclear Repulsion Tot:   3.3671653525161514E+02 [Eh]

  ==> Coulomb Integrals <==

  ==> DiskDFJK: Density-Fitted J/K Matrices <==

    J tasked:                  Yes
    K tasked:                  Yes
    wK tasked:                  No
    OpenMP threads:              1
    Integrals threads:           1
    Memory [MiB]:              450
    Algorithm:                Core
    Integral Cache:           NONE
    Schwarz Cutoff:          1E-12
    Fitting Condition:       1E-10

   => Auxiliary Basis Set <=

  Basis Set: (JUN-CC-PVDZ AUX)
    Blend: JUN-CC-PVDZ-JKFIT
    Number of shells: 297
    Number of basis function: 829
    Number of Cartesian functions: 937
    Spherical Harmonics?: true
    Max angular momentum: 3

  ==> Relaxed SCF Equations <==

  ==> SCF A: <==

    Maxiter =         100
    E Tol   =   1.000E-08
    D Tol   =   1.000E-08

    Max DIIS Vectors = 10

    Iter   N:                        E          dE         |D|
    Iter   1:  -1.4999978849155633E+02  -1.500E+02   1.784E-03 
    Iter   2:  -1.5001872783805129E+02  -1.894E-02   1.115E-04 DIIS
    Iter   3:  -1.5001905838742076E+02  -3.305E-04   2.453E-05 DIIS
    Iter   4:  -1.5001907799244515E+02  -1.961E-05   9.254E-06 DIIS
    Iter   5:  -1.5001908021695186E+02  -2.225E-06   2.746E-06 DIIS
    Iter   6:  -1.5001908038748289E+02  -1.705E-07   7.964E-07 DIIS
    Iter   7:  -1.5001908040772815E+02  -2.025E-08   1.680E-07 DIIS
    Iter   8:  -1.5001908040897806E+02  -1.250E-09   4.846E-08 DIIS
    Iter   9:  -1.5001908040908665E+02  -1.086E-10   1.309E-08 DIIS
    Iter  10:  -1.5001908040909422E+02  -7.560E-12   3.974E-09 DIIS

    FISAPTSCF Converged.

    Final SCF Energy:  -1.5001908040909422E+02 [Eh]

   => Occupied Orbital Energies <=

       1  -20.546927     2  -11.270169     3  -11.218253  
       4   -1.321322     5   -0.972210     6   -0.758176  
       7   -0.653027     8   -0.595050     9   -0.549389  
      10   -0.524689    11   -0.492199    12   -0.429571  

   => Virtual Orbital Energies <=

      13    0.026796    14    0.061393    15    0.064891  
      16    0.075059    17    0.087295    18    0.092946  
      19    0.108728    20    0.113842    21    0.120408  
      22    0.130881    23    0.145782    24    0.151521  
      25    0.153218    26    0.160824    27    0.167542  
      28    0.183120    29    0.196183    30    0.226879  
      31    0.240164    32    0.243389    33    0.256128  
      34    0.259168    35    0.267434    36    0.279894  
      37    0.294669    38    0.301947    39    0.315765  
      40    0.324239    41    0.340321    42    0.345007  
      43    0.355202    44    0.358573    45    0.373541  
      46    0.392696    47    0.408207    48    0.436008  
      49    0.440694    50    0.447132    51    0.458380  
      52    0.480859    53    0.492968    54    0.502493  
      55    0.528995    56    0.558357    57    0.575500  
      58    0.595529    59    0.604090    60    0.620189  
      61    0.639207    62    0.654292    63    0.728449  
      64    0.759828    65    0.778043    66    0.791288  
      67    0.835468    68    0.859639    69    0.881663  
      70    0.900895    71    0.939737    72    0.951889  
      73    0.963272    74    0.989932    75    1.013868  
      76    1.020892    77    1.045581    78    1.077987  
      79    1.088794    80    1.105823    81    1.115790  
      82    1.128936    83    1.144583    84    1.237997  
      85    1.326688    86    1.337960    87    1.421125  
      88    1.476663    89    1.493539    90    1.513128  
      91    1.528985    92    1.546361    93    1.565505  
      94    1.597569    95    1.611924    96    1.638115  
      97    1.653103    98    1.689968    99    1.708795  
     100    1.758301   101    1.763817   102    1.793316  
     103    1.804299   104    1.861507   105    1.869884  
     106    1.890941   107    1.906976   108    1.923688  
     109    1.950055   110    1.954261   111    1.972229  
     112    1.986154   113    2.012263   114    2.017748  
     115    2.029478   116    2.054757   117    2.058975  
     118    2.073922   119    2.099428   120    2.104086  
     121    2.130517   122    2.147838   123    2.173749  
     124    2.182418   125    2.218028   126    2.229851  
     127    2.263533   128    2.304321   129    2.317211  
     130    2.333055   131    2.351274   132    2.385665  
     133    2.414043   134    2.422239   135    2.464309  
     136    2.479541   137    2.483592   138    2.509523  
     139    2.534350   140    2.567135   141    2.576731  
     142    2.647273   143    2.660498   144    2.679982  
     145    2.720378   146    2.735431   147    2.812171  
     148    2.820412   149    2.851244   150    2.861669  
     151    2.879638   152    2.907173   153    2.937751  
     154    2.973929   155    3.050637   156    3.055041  
     157    3.138627   158    3.199502   159    3.253783  
     160    3.330890   161    3.365929   162    3.438493  
     163    3.521397   164    3.535681   165    3.698017  
     166    4.136297   167    4.187094   168    4.432840  
     169    4.511456   170    4.575560   171    4.694751  
     172    4.896218   173    4.985710   174    5.035354  
     175    5.176603   176    5.626678   177    5.935107  
     178    6.778718   179   13.271486   180   18.394237  
     181   33.468708  

  ==> SCF B: <==

    Maxiter =         100
    E Tol   =   1.000E-08
    D Tol   =   1.000E-08

    Max DIIS Vectors = 10

    Iter   N:                        E          dE         |D|
    Iter   1:  -1.5021293129749645E+02  -1.502E+02   1.481E-03 
    Iter   2:  -1.5022758623584627E+02  -1.465E-02   1.047E-04 DIIS
    Iter   3:  -1.5022792667859804E+02  -3.404E-04   2.552E-05 DIIS
    Iter   4:  -1.5022795320694414E+02  -2.653E-05   9.073E-06 DIIS
    Iter   5:  -1.5022795654738013E+02  -3.340E-06   2.790E-06 DIIS
    Iter   6:  -1.5022795686589177E+02  -3.185E-07   1.213E-06 DIIS
    Iter   7:  -1.5022795690704288E+02  -4.115E-08   3.447E-07 DIIS
    Iter   8:  -1.5022795691209095E+02  -5.048E-09   7.902E-08 DIIS
    Iter   9:  -1.5022795691236968E+02  -2.787E-10   2.205E-08 DIIS
    Iter  10:  -1.5022795691239341E+02  -2.373E-11   6.848E-09 DIIS

    FISAPTSCF Converged.

    Final SCF Energy:  -1.5022795691239341E+02 [Eh]

   => Occupied Orbital Energies <=

       1  -20.552348     2  -11.276828     3  -11.211725  
       4   -1.332356     5   -0.971093     6   -0.763549  
       7   -0.675319     8   -0.555444     9   -0.539139  
      10   -0.521187    11   -0.489630    12   -0.461709  

   => Virtual Orbital Energies <=

      13    0.017131    14    0.053698    15    0.068910  
      16    0.070241    17    0.089111    18    0.091770  
      19    0.106811    20    0.113541    21    0.116816  
      22    0.130680    23    0.144024    24    0.148330  
      25    0.153517    26    0.159591    27    0.162427  
      28    0.178675    29    0.195228    30    0.224711  
      31    0.232407    32    0.242677    33    0.246659  
      34    0.253079    35    0.266144    36    0.269383  
      37    0.292698    38    0.300040    39    0.314943  
      40    0.326092    41    0.335836    42    0.350560  
      43    0.354227    44    0.363136    45    0.375084  
      46    0.397702    47    0.406741    48    0.422473  
      49    0.437308    50    0.441261    51    0.463707  
      52    0.477440    53    0.490592    54    0.498508  
      55    0.530153    56    0.544362    57    0.571414  
      58    0.591608    59    0.598831    60    0.616380  
      61    0.627173    62    0.647533    63    0.698179  
      64    0.745218    65    0.777233    66    0.785624  
      67    0.848781    68    0.857833    69    0.869414  
      70    0.897118    71    0.923311    72    0.949959  
      73    0.958595    74    0.978646    75    1.012320  
      76    1.024671    77    1.046115    78    1.060125  
      79    1.087373    80    1.099563    81    1.126862  
      82    1.135239    83    1.149972    84    1.229037  
      85    1.308076    86    1.332725    87    1.439571  
      88    1.460667    89    1.480669    90    1.524403  
      91    1.535610    92    1.544028    93    1.564108  
      94    1.591310    95    1.606402    96    1.619183  
      97    1.673977    98    1.690060    99    1.706818  
     100    1.735358   101    1.753493   102    1.767164  
     103    1.801644   104    1.834368   105    1.872987  
     106    1.890432   107    1.915281   108    1.931651  
     109    1.953455   110    1.962543   111    1.982583  
     112    1.995081   113    2.000547   114    2.018690  
     115    2.030985   116    2.047294   117    2.050205  
     118    2.064282   119    2.084474   120    2.109561  
     121    2.122127   122    2.151434   123    2.162596  
     124    2.182760   125    2.214901   126    2.248312  
     127    2.253689   128    2.285389   129    2.310774  
     130    2.315743   131    2.356874   132    2.376216  
     133    2.394293   134    2.423536   135    2.437170  
     136    2.459072   137    2.490521   138    2.493925  
     139    2.525628   140    2.558706   141    2.587721  
     142    2.618056   143    2.636098   144    2.671613  
     145    2.678837   146    2.710614   147    2.814843  
     148    2.841467   149    2.847090   150    2.859133  
     151    2.870396   152    2.916831   153    2.958846  
     154    2.977502   155    3.042116   156    3.064542  
     157    3.088358   158    3.193537   159    3.208353  
     160    3.329411   161    3.369824   162    3.439525  
     163    3.536129   164    3.546066   165    3.708061  
     166    4.116140   167    4.168290   168    4.394997  
     169    4.478562   170    4.574240   171    4.624361  
     172    4.919270   173    4.973954   174    4.987557  
     175    5.183607   176    5.604213   177    5.893398  
     178    6.766713   179   13.265157   180   18.389354  
     181   33.452538  

  ==> Frozen Core <==


    ------------------
    Range      A     B
    ------------------
    nbf      186   186
    nmo      181   181
    nocc      12    12
    nvir     169   169
    nfocc      3     3
    naocc      9     9
    navir    169   169
    nfvir      0     0
    ------------------

  ==> Unification <==

  ==> dHF <==

    E ABC(HF) =  -3.4608352301858088E+02 [Eh]
    E AC(0)   =  -1.9195795352629673E+02 [Eh]
    E BC(0)   =  -1.9191195589042985E+02 [Eh]
    E A(0)    =  -1.3899646537135010E+02 [Eh]
    E B(0)    =  -1.3898101840459361E+02 [Eh]
    E AC(HF)  =  -1.9193866160875879E+02 [Eh]
    E BC(HF)  =  -1.9189693027553278E+02 [Eh]
    E AB(HF)  =  -2.7792506663293710E+02 [Eh]
    E A(HF)   =  -1.3896275452620367E+02 [Eh]
    E B(HF)   =  -1.3894837043009841E+02 [Eh]
    E C       =  -3.7766010542345605E+01 [Eh]
    E HF      =   2.0375855800104148E-02 [Eh]

  ==> Electrostatics <==

    Elst10,r            =     0.014964077640 [Eh]

  ==> Exchange <==

    Exch10(S^2)         =     0.010681084799 [Eh]
    Exch10              =     0.010694722547 [Eh]

  ==> Induction <==

    Ind20,u (A<-B)      =    -0.004785357307 [Eh]
    Ind20,u (B<-A)      =    -0.004741981845 [Eh]
    Ind20,u             =    -0.009527339153 [Eh]
    Exch-Ind20,u (A<-B) =     0.002795415519 [Eh]
    Exch-Ind20,u (B<-A) =     0.002538460138 [Eh]
    Exch-Ind20,u        =     0.005333875656 [Eh]

  ==> CPHF Iterations <==

    Maxiter     =         100
    Convergence =   1.000E-08

    -----------------------------------------
    Iter   Monomer A    Monomer B    Time [s]
    -----------------------------------------
    1      1.491E-01    1.418E-01           1
    2      4.247E-02    3.865E-02           1
    3      9.931E-03    9.851E-03           2
    4      4.090E-03    3.794E-03           2
    5      8.473E-04    8.906E-04           3
    6      2.597E-04    2.786E-04           4
    7      5.854E-05    6.751E-05           5
    8      1.806E-05    2.156E-05           6
    9      4.708E-06    6.164E-06           6
    10     7.637E-07    1.176E-06           7
    11     1.699E-07    2.144E-07           7
    12     4.096E-08    4.638E-08           8
    13     7.865E-09*   9.223E-09*          8
    -----------------------------------------

    Ind20,r (A<-B)      =    -0.005467281637 [Eh]
    Ind20,r (B<-A)      =    -0.005370411809 [Eh]
    Ind20,r             =    -0.010837693447 [Eh]
    Exch-Ind20,r (A<-B) =     0.003359704299 [Eh]
    Exch-Ind20,r (B<-A) =     0.002960920937 [Eh]
    Exch-Ind20,r        =     0.006320625237 [Eh]

  ==> F-SAPT Localization (IBO) <==

  Local Orbitals for Monomer A:

  ==> IBO Localizer 2 <==

    MinAO Basis = CC-PVTZ-MINAO
    Use Ghosts  =       FALSE
    Use Stars   =       FALSE
    Condition   =   1.000E-07
    Power       =           4
    Convergence =   1.000E-12
    Maxiter     =        1000

    @IBO Iter:                   Metric       Gradient
    @IBO    1:   1.3851322699528634E+00   1.203756E+00
    @IBO    2:   1.5270015780654957E+00   7.295244E-01
    @IBO    3:   1.5558924850976366E+00   1.957482E-01
    @IBO    4:   1.5586614557793734E+00   9.388362E-03
    @IBO    5:   1.5586704538781284E+00   1.691343E-04
    @IBO    6:   1.5586704544726429E+00   4.364176E-07
    @IBO    7:   1.5586704544726531E+00   4.928427E-09
    @IBO    8:   1.5586704544726531E+00   3.923067E-11
    @IBO    9:   1.5586704544726531E+00   1.987385E-13

    IBO Localizer 2 converged.

  Local Orbitals for Monomer B:

  ==> IBO Localizer 2 <==

    MinAO Basis = CC-PVTZ-MINAO
    Use Ghosts  =       FALSE
    Use Stars   =       FALSE
    Condition   =   1.000E-07
    Power       =           4
    Convergence =   1.000E-12
    Maxiter     =        1000

    @IBO Iter:                   Metric       Gradient
    @IBO    1:   1.3850787723220443E+00   7.293935E-01
    @IBO    2:   1.5144101108724168E+00   7.291078E-01
    @IBO    3:   1.5570984629193907E+00   2.650299E-01
    @IBO    4:   1.5595903696017728E+00   8.365433E-02
    @IBO    5:   1.5596996858066183E+00   3.802988E-04
    @IBO    6:   1.5596996881384109E+00   1.599770E-06
    @IBO    7:   1.5596996881384686E+00   1.104144E-08
    @IBO    8:   1.5596996881384688E+00   1.285593E-10
    @IBO    9:   1.5596996881384688E+00   1.353736E-12
    @IBO   10:   1.5596996881384688E+00   1.056609E-14

    IBO Localizer 2 converged.

  ==> F-SAPT Electrostatics <==

  DFHelper Memory: AOs need 0.224 GiB; user supplied 0.439 GiB. Using in-core AOs.

  ==> DFHelper <==
    NBF:                             186
    NAux:                            829
    Schwarz Cutoff:                1E-12
    Mask sparsity (%):                 3
    DFH Avail. Memory [GiB]:       0.439
    OpenMP threads:                    1
    Algorithm:                DIRECT_iaQ
    AO Core:                        True
    MO Core:                       False
    Hold Metric:                   False
    Metric Power:                 -0.500
    Fitting Condition:             1E-12
    Q Shell Max:                       7


    Elst10,r            =     0.014964077643 [Eh]

  ==> F-SAPT Exchange <==

    Exch10(S^2)         =     0.010681084799 [Eh]

    Scaling F-SAPT Exch10(S^2) by   1.001E+00 to match Exch10

  ==> F-SAPT Induction <==

    Ind20,u (A<-B)      =    -0.004785357307 [Eh]
    Ind20,u (B<-A)      =    -0.004741981845 [Eh]
    Ind20,u             =    -0.009527339153 [Eh]
    Exch-Ind20,u (A<-B) =     0.002795415519 [Eh]
    Exch-Ind20,u (B<-A) =     0.002538460137 [Eh]
    Exch-Ind20,u        =     0.005333875656 [Eh]

    Scaling for delta HF        =   1.170E+00
    Scaling for response (A<-B) =   1.059E+00
    Scaling for response (B<-A) =   1.093E+00
    Scaling for total (A<-B)    =   1.239E+00
    Scaling for total (B<-A)    =   1.279E+00

  ==> F-SAPT Dispersion <==

  DFHelper Memory: AOs need 0.169 GiB; user supplied 0.438 GiB. Using in-core AOs.

  ==> DFHelper <==
    NBF:                             186
    NAux:                            623
    Schwarz Cutoff:                1E-12
    Mask sparsity (%):                 3
    DFH Avail. Memory [GiB]:       0.438
    OpenMP threads:                    1
    Algorithm:                DIRECT_iaQ
    AO Core:                        True
    MO Core:                       False
    Hold Metric:                   False
    Metric Power:                 -0.500
    Fitting Condition:             1E-12
    Q Shell Max:                       7


    Disp20              =    -0.005471127259 [Eh]
    Exch-Disp20         =     0.000635528514 [Eh]

  ==> F-SAPT Output <==

    F-SAPT Data Filepath = fsapt/

  ==> Scalar Field Plots <==

    F-SAPT Plot Filepath = plot/

  ==> CubicScalarGrid <==

    Filepath     = plot/
    Total Points =           510708
    XYZ Blocking =               10
    X Points     =              106
    Y Points     =               73
    Z Points     =               66
    X Spacing    =        2.000E-01
    Y Spacing    =        2.000E-01
    Z Spacing    =        2.000E-01
    X Minimum    =       -1.051E+01
    Y Minimum    =       -7.066E+00
    Z Minimum    =       -6.512E+00
    X Maximum    =        1.049E+01
    Y Maximum    =        7.334E+00
    Z Maximum    =        6.488E+00

  Basis Set: JUN-CC-PVDZ
    Blend: JUN-CC-PVDZ
    Number of shells: 92
    Number of basis function: 186
    Number of Cartesian functions: 193
    Spherical Harmonics?: true
    Max angular momentum: 2

  ==> Results <==


    SAPT Results  
  --------------------------------------------------------------------------------------------------------
    Electrostatics                 14.96407764 [mEh]       9.39010049 [kcal/mol]      39.28818043 [kJ/mol]
      Elst10,r                     14.96407764 [mEh]       9.39010049 [kcal/mol]      39.28818043 [kJ/mol]

    Exchange                       10.69472255 [mEh]       6.71103972 [kcal/mol]      28.07899018 [kJ/mol]
      Exch10                       10.69472255 [mEh]       6.71103972 [kcal/mol]      28.07899018 [kJ/mol]
      Exch10(S^2)                  10.68108480 [mEh]       6.70248190 [kcal/mol]      28.04318428 [kJ/mol]

    Induction                      -5.28294439 [mEh]      -3.31509765 [kcal/mol]     -13.87036858 [kJ/mol]
      Ind20,r                     -10.83769345 [mEh]      -6.80075531 [kcal/mol]     -28.45436022 [kJ/mol]
      Exch-Ind20,r                  6.32062524 [mEh]       3.96625222 [kcal/mol]      16.59479927 [kJ/mol]
      delta HF,r (2)               -0.76587618 [mEh]      -0.48059456 [kcal/mol]      -2.01080762 [kJ/mol]
      Induction (A<-B)             -2.46492046 [mEh]      -1.54676094 [kcal/mol]      -6.47164779 [kJ/mol]
      Induction (B<-A)             -2.81802392 [mEh]      -1.76833671 [kcal/mol]      -7.39872079 [kJ/mol]

    Dispersion                     -4.83559874 [mEh]      -3.03438402 [kcal/mol]     -12.69586276 [kJ/mol]
      Disp20                       -5.47112726 [mEh]      -3.43318419 [kcal/mol]     -14.36444264 [kJ/mol]
      Exch-Disp20                   0.63552851 [mEh]       0.39880016 [kcal/mol]       1.66857988 [kJ/mol]

  Total HF                         20.37585580 [mEh]      12.78604255 [kcal/mol]      53.49680203 [kJ/mol]
  Total SAPT0                      15.54025706 [mEh]       9.75165853 [kcal/mol]      40.80093928 [kJ/mol]

  --------------------------------------------------------------------------------------------------------
    Han Solo: This is *not* gonna work.
    Luke Skywalker: Why didn't you say so before?
    Han Solo: I *did* say so before.

    Psi4 stopped on: Friday, 29 September 2023 12:03PM
    Psi4 wall time for execution: 0:02:08.79

*** Psi4 exiting successfully. Buy a developer a beer!
