
    -----------------------------------------------------------------------
          Psi4: An Open-Source Ab Initio Electronic Structure Package
                               Psi4 1.3.2 release

                         Git: Rev {} zzzzzzz 


    R. M. Parrish, L. A. Burns, D. G. A. Smith, A. C. Simmonett,
    A. E. DePrince III, E. G. Hohenstein, U. Bozkaya, A. Yu. Sokolov,
    R. Di Remigio, R. M. Richard, J. F. Gonthier, A. M. James,
    H. R. McAlexander, A. Kumar, M. Saitow, X. Wang, B. P. Pritchard,
    P. Verma, H. F. Schaefer III, K. Patkowski, R. A. King, E. F. Valeev,
    F. A. Evangelista, J. M. Turney, T. D. Crawford, and C. D. Sherrill,
    J. Chem. Theory Comput. 13(7) pp 3185--3197 (2017).
    (doi: 10.1021/acs.jctc.7b00174)


                         Additional Contributions by
    P. Kraus, H. Kruse, M. H. Lechner, M. C. Schieber, R. A. Shaw,
    A. Alenaizan, R. Galvelis, Z. L. Glick, S. Lehtola, and J. P. Misiewicz

    -----------------------------------------------------------------------


    Psi4 started on: Friday, 29 September 2023 12:25PM

    Process ID: 42625
    Host:       DFSM
    PSIDATADIR: /usr/share/psi4
    Memory:     500.0 MiB
    Threads:    1
    
  ==> Input File <==

--------------------------------------------------------------------------
mol = psi4.core.Molecule.from_arrays(
elez=[6, 6, 1, 1, 1, 8, 1, 1, 6, 6, 1, 1, 1, 8, 1, 1, 6, 1, 1],
fragment_separators=[8, 16],
fix_com=True,
fix_orientation=True,
fix_symmetry='c1',
fragment_multiplicities=[2, 2, 1],
molecular_charge=0,
molecular_multiplicity=1,
geom=[
             0.39987 ,        2.94222 ,       -0.26535 ,
             0.05893 ,        2.05436 ,       -0.50962 ,

             0.48122 ,        0.30277 ,       -0.77763 ,
             0.26106 ,       -0.50005 ,        1.28451 ,

             2.33048 ,       -1.00269 ,        0.03771 ,
             1.89725 ,        0.31533 ,       -0.59009 ,
             2.28232 ,        1.50669 ,        0.29709 ,
             1.82204 ,        2.84608 ,       -0.29432 ,
             2.37905 ,        4.02099 ,        0.49639 ,
             3.41246 ,       -1.03030 ,        0.19825 ,
             2.05362 ,       -1.84372 ,       -0.60709 ,
             1.82714 ,       -1.16382 ,        0.99734 ,
             2.36243 ,        0.42333 ,       -1.57636 ,
             3.36962 ,        1.51414 ,        0.43813 ,
             1.81251 ,        1.38060 ,        1.28140 ,
             2.14344 ,        2.92967 ,       -1.33843 ,
             3.47320 ,        4.02400 ,        0.48819 ,
             2.03535 ,        3.99216 ,        1.53635 ,
             2.02481 ,        4.96785 ,        0.07455 ])
activate(mol)

# => Standard Options <= #

set {
basis jun-cc-pVDZ
scf_type disk_df
guess sad
freeze_core true
fisapt_do_plot true
}

energy('fisapt0') 
--------------------------------------------------------------------------

*** tstart() called on DFSM
*** at Fri Sep 29 12:25:54 2023

   => Loading Basis Set <=

    Name: JUN-CC-PVDZ
    Role: ORBITAL
    Keyword: BASIS
    atoms 1-2, 9-10, 17                 entry C          line   164 file /usr/share/psi4/basis/jun-cc-pvdz.gbs 
    atoms 3-5, 7-8, 11-13, 15-16, 18-19 entry H          line    36 file /usr/share/psi4/basis/jun-cc-pvdz.gbs 
    atoms 6, 14                         entry O          line   232 file /usr/share/psi4/basis/jun-cc-pvdz.gbs 


         ---------------------------------------------------------
                                   SCF
               by Justin Turney, Rob Parrish, Andy Simmonett
                          and Daniel G. A. Smith
                              RHF Reference
                        1 Threads,    500 MiB Core
         ---------------------------------------------------------

  ==> Geometry <==

    Molecular point group: c1
    Full point group: C1

    Geometry (in Angstrom), charge = 0, multiplicity = 1:

       Center              X                  Y                   Z               Mass       
    ------------   -----------------  -----------------  -----------------  -----------------
         C            0.399870000000     2.942220000000    -0.265350000000    12.000000000000
         C            0.058930000000     2.054360000000    -0.509620000000    12.000000000000
         H            0.481220000000     0.302770000000    -0.777630000000     1.007825032230
         H            0.261060000000    -0.500050000000     1.284510000000     1.007825032230
         H            2.330480000000    -1.002690000000     0.037710000000     1.007825032230
         O            1.897250000000     0.315330000000    -0.590090000000    15.994914619570
         H            2.282320000000     1.506690000000     0.297090000000     1.007825032230
         H            1.822040000000     2.846080000000    -0.294320000000     1.007825032230
         C            2.379050000000     4.020990000000     0.496390000000    12.000000000000
         C            3.412460000000    -1.030300000000     0.198250000000    12.000000000000
         H            2.053620000000    -1.843720000000    -0.607090000000     1.007825032230
         H            1.827140000000    -1.163820000000     0.997340000000     1.007825032230
         H            2.362430000000     0.423330000000    -1.576360000000     1.007825032230
         O            3.369620000000     1.514140000000     0.438130000000    15.994914619570
         H            1.812510000000     1.380600000000     1.281400000000     1.007825032230
         H            2.143440000000     2.929670000000    -1.338430000000     1.007825032230
         C            3.473200000000     4.024000000000     0.488190000000    12.000000000000
         H            2.035350000000     3.992160000000     1.536350000000     1.007825032230
         H            2.024810000000     4.967850000000     0.074550000000     1.007825032230

  Running in c1 symmetry.

  Rotational constants: A =      0.05585  B =      0.01596  C =      0.01294 [cm^-1]
  Rotational constants: A =   1674.33356  B =    478.46274  C =    387.81214 [MHz]
  Nuclear repulsion =  306.737224282760565

  Charge       = 0
  Multiplicity = 1
  Electrons    = 58
  Nalpha       = 29
  Nbeta        = 29

  ==> Algorithm <==

  SCF Algorithm Type is DISK_DF.
  DIIS enabled.
  MOM disabled.
  Fractional occupation disabled.
  Guess Type is SAD.
  Energy threshold   = 1.00e-08
  Density threshold  = 1.00e-08
  Integral threshold = 0.00e+00

  ==> Primary Basis <==

  Basis Set: JUN-CC-PVDZ
    Blend: JUN-CC-PVDZ
    Number of shells: 92
    Number of basis function: 186
    Number of Cartesian functions: 193
    Spherical Harmonics?: true
    Max angular momentum: 2

   => Loading Basis Set <=

    Name: (JUN-CC-PVDZ AUX)
    Role: JKFIT
    Keyword: DF_BASIS_SCF
    atoms 1-2, 9-10, 17                 entry C          line   146 file /usr/share/psi4/basis/jun-cc-pvdz-jkfit.gbs 
    atoms 3-5, 7-8, 11-13, 15-16, 18-19 entry H          line    70 file /usr/share/psi4/basis/jun-cc-pvdz-jkfit.gbs 
    atoms 6, 14                         entry O          line   258 file /usr/share/psi4/basis/jun-cc-pvdz-jkfit.gbs 

  ==> Pre-Iterations <==

   -------------------------------------------------------
    Irrep   Nso     Nmo     Nalpha   Nbeta   Ndocc  Nsocc
   -------------------------------------------------------
     A        186     186       0       0       0       0
   -------------------------------------------------------
    Total     186     186      29      29      29       0
   -------------------------------------------------------

  ==> Integral Setup <==

  ==> DiskDFJK: Density-Fitted J/K Matrices <==

    J tasked:                  Yes
    K tasked:                  Yes
    wK tasked:                  No
    OpenMP threads:              1
    Integrals threads:           1
    Memory [MiB]:              375
    Algorithm:                Core
    Integral Cache:           NONE
    Schwarz Cutoff:          1E-12
    Fitting Condition:       1E-10

   => Auxiliary Basis Set <=

  Basis Set: (JUN-CC-PVDZ AUX)
    Blend: JUN-CC-PVDZ-JKFIT
    Number of shells: 297
    Number of basis function: 829
    Number of Cartesian functions: 937
    Spherical Harmonics?: true
    Max angular momentum: 3

  Minimum eigenvalue in the overlap matrix is 1.2125917420E-04.
  Using Symmetric Orthogonalization.

  SCF Guess: Superposition of Atomic Densities via on-the-fly atomic UHF.

  ==> Iterations <==

                           Total Energy        Delta E     RMS |[F,P]|

   @DF-RHF iter SAD:  -343.13399103923035   -3.43134e+02   0.00000e+00 
   @DF-RHF iter   1:  -343.05860514879635    7.53859e-02   5.74744e-03 DIIS
   @DF-RHF iter   2:  -334.52431916807660    8.53429e+00   1.61115e-02 DIIS
   @DF-RHF iter   3:  -343.59458847985690   -9.07027e+00   3.38433e-03 DIIS
   @DF-RHF iter   4:  -343.86517266164708   -2.70584e-01   3.24662e-03 DIIS
   @DF-RHF iter   5:  -344.06421302495687   -1.99040e-01   1.72871e-03 DIIS
   @DF-RHF iter   6:  -344.12436870914149   -6.01557e-02   1.15677e-03 DIIS
   @DF-RHF iter   7:  -344.16341586896556   -3.90472e-02   5.21514e-04 DIIS
   @DF-RHF iter   8:  -344.17446388647858   -1.10480e-02   1.73434e-04 DIIS
   @DF-RHF iter   9:  -344.17626346513214   -1.79958e-03   5.05489e-05 DIIS
   @DF-RHF iter  10:  -344.17649100467673   -2.27540e-04   2.77966e-05 DIIS
   @DF-RHF iter  11:  -344.17657651503720   -8.55104e-05   1.25699e-05 DIIS
   @DF-RHF iter  12:  -344.17660461009791   -2.80951e-05   6.54085e-06 DIIS
   @DF-RHF iter  13:  -344.17661303180211   -8.42170e-06   4.29353e-06 DIIS
   @DF-RHF iter  14:  -344.17661782843538   -4.79663e-06   2.57801e-06 DIIS
   @DF-RHF iter  15:  -344.17661952556085   -1.69713e-06   1.49243e-06 DIIS
   @DF-RHF iter  16:  -344.17661996955690   -4.43996e-07   7.62880e-07 DIIS
   @DF-RHF iter  17:  -344.17662008305786   -1.13501e-07   4.72588e-07 DIIS
   @DF-RHF iter  18:  -344.17662011634349   -3.32856e-08   2.94741e-07 DIIS
   @DF-RHF iter  19:  -344.17662012901491   -1.26714e-08   1.66144e-07 DIIS
   @DF-RHF iter  20:  -344.17662013416674   -5.15183e-09   8.32837e-08 DIIS
   @DF-RHF iter  21:  -344.17662013540576   -1.23902e-09   4.88318e-08 DIIS
   @DF-RHF iter  22:  -344.17662013576978   -3.64025e-10   3.33796e-08 DIIS
   @DF-RHF iter  23:  -344.17662013593258   -1.62800e-10   2.12587e-08 DIIS
   @DF-RHF iter  24:  -344.17662013603979   -1.07207e-10   1.29217e-08 DIIS
   @DF-RHF iter  25:  -344.17662013607082   -3.10365e-11   6.83783e-09 DIIS
  Energy and wave function converged.


  ==> Post-Iterations <==

    Orbital Energies [Eh]
    ---------------------

    Doubly Occupied:                                                      

       1A    -20.606779     2A    -20.601160     3A    -11.384854  
       4A    -11.284776     5A    -11.270749     6A    -11.246860  
       7A    -11.226546     8A     -1.344040     9A     -1.257221  
      10A     -1.192463    11A     -1.162827    12A     -0.947653  
      13A     -0.786859    14A     -0.729032    15A     -0.696541  
      16A     -0.672448    17A     -0.654677    18A     -0.594585  
      19A     -0.551821    20A     -0.532604    21A     -0.513898  
      22A     -0.491068    23A     -0.474382    24A     -0.469543  
      25A     -0.460708    26A     -0.440288    27A     -0.401514  
      28A     -0.382897    29A     -0.312536  

    Virtual:                                                              

      30A     -0.102324    31A     -0.006536    32A      0.016289  
      33A      0.043235    34A      0.057202    35A      0.063295  
      36A      0.072351    37A      0.073082    38A      0.088554  
      39A      0.093518    40A      0.100291    41A      0.106122  
      42A      0.117156    43A      0.128340    44A      0.131101  
      45A      0.137488    46A      0.140368    47A      0.150729  
      48A      0.158669    49A      0.167831    50A      0.174724  
      51A      0.183076    52A      0.189077    53A      0.211083  
      54A      0.223067    55A      0.231052    56A      0.245766  
      57A      0.264433    58A      0.271154    59A      0.274290  
      60A      0.287948    61A      0.291133    62A      0.304483  
      63A      0.314002    64A      0.340525    65A      0.359153  
      66A      0.373031    67A      0.378792    68A      0.392295  
      69A      0.415807    70A      0.426294    71A      0.447589  
      72A      0.484193    73A      0.520173    74A      0.581620  
      75A      0.646981    76A      0.667418    77A      0.695294  
      78A      0.707833    79A      0.723899    80A      0.734369  
      81A      0.744660    82A      0.763090    83A      0.775196  
      84A      0.789310    85A      0.810355    86A      0.823077  
      87A      0.835395    88A      0.845700    89A      0.874630  
      90A      0.876559    91A      0.909274    92A      0.929117  
      93A      0.933387    94A      0.945338    95A      0.974051  
      96A      0.983484    97A      0.995342    98A      1.015795  
      99A      1.059227   100A      1.087103   101A      1.093890  
     102A      1.129522   103A      1.160487   104A      1.163954  
     105A      1.195600   106A      1.209553   107A      1.212189  
     108A      1.227694   109A      1.254584   110A      1.270979  
     111A      1.284845   112A      1.343968   113A      1.369380  
     114A      1.379847   115A      1.408290   116A      1.409534  
     117A      1.414005   118A      1.426692   119A      1.464337  
     120A      1.490153   121A      1.509179   122A      1.529405  
     123A      1.540389   124A      1.558733   125A      1.565634  
     126A      1.587043   127A      1.589785   128A      1.616744  
     129A      1.627081   130A      1.630746   131A      1.652517  
     132A      1.678871   133A      1.694272   134A      1.724735  
     135A      1.735726   136A      1.782236   137A      1.792601  
     138A      1.812484   139A      1.848279   140A      1.856003  
     141A      1.900558   142A      1.912601   143A      1.930707  
     144A      1.971341   145A      1.977627   146A      2.002646  
     147A      2.033623   148A      2.050246   149A      2.077380  
     150A      2.089342   151A      2.102188   152A      2.151814  
     153A      2.167388   154A      2.227703   155A      2.250402  
     156A      2.287864   157A      2.315497   158A      2.338669  
     159A      2.352709   160A      2.400954   161A      2.434669  
     162A      2.452434   163A      2.503264   164A      2.508563  
     165A      2.526311   166A      2.575632   167A      2.606354  
     168A      2.687080   169A      2.731640   170A      2.754729  
     171A      2.794076   172A      2.810217   173A      2.855027  
     174A      2.881134   175A      3.030030   176A      3.070412  
     177A      3.109570   178A      3.158332   179A      3.180554  
     180A      3.245604   181A      3.384291   182A      3.496206  
     183A      3.538801   184A      3.823309   185A      3.966330  
     186A      4.017745  

    Final Occupation by Irrep:
              A 
    DOCC [    29 ]

  @DF-RHF Final Energy:  -344.17662013607082

   => Energetics <=

    Nuclear Repulsion Energy =            306.7372242827605646
    One-Electron Energy =               -1076.4450345434599967
    Two-Electron Energy =                 425.5311901246286652
    Total Energy =                       -344.1766201360708237

Computation Completed


Properties will be evaluated at   0.000000,   0.000000,   0.000000 [a0]

Properties computed using the SCF density matrix

  Nuclear Dipole Moment: [e a0]
     X:   230.3811      Y:   189.9973      Z:     4.0565

  Electronic Dipole Moment: [e a0]
     X:  -230.6986      Y:  -188.5198      Z:    -5.1867

  Dipole Moment: [e a0]
     X:    -0.3174      Y:     1.4775      Z:    -1.1302     Total:     1.8871

  Dipole Moment: [D]
     X:    -0.8069      Y:     3.7554      Z:    -2.8726     Total:     4.7964


*** tstop() called on DFSM at Fri Sep 29 12:26:07 2023
Module time:
	user time   =      56.31 seconds =       0.94 minutes
	system time =     112.75 seconds =       1.88 minutes
	total time  =         13 seconds =       0.22 minutes
Total time:
	user time   =      56.31 seconds =       0.94 minutes
	system time =     112.75 seconds =       1.88 minutes
	total time  =         13 seconds =       0.22 minutes
  Constructing Basis Sets for FISAPT...

   => Loading Basis Set <=

    Name: (JUN-CC-PVDZ AUX)
    Role: JKFIT
    Keyword: DF_BASIS_SCF
    atoms 1-2, 9-10, 17                 entry C          line   146 file /usr/share/psi4/basis/jun-cc-pvdz-jkfit.gbs 
    atoms 3-5, 7-8, 11-13, 15-16, 18-19 entry H          line    70 file /usr/share/psi4/basis/jun-cc-pvdz-jkfit.gbs 
    atoms 6, 14                         entry O          line   258 file /usr/share/psi4/basis/jun-cc-pvdz-jkfit.gbs 

   => Loading Basis Set <=

    Name: (JUN-CC-PVDZ AUX)
    Role: RIFIT
    Keyword: DF_BASIS_SAPT
    atoms 1-2, 9-10, 17                 entry C          line   100 file /usr/share/psi4/basis/jun-cc-pvdz-ri.gbs 
    atoms 3-5, 7-8, 11-13, 15-16, 18-19 entry H          line    30 file /usr/share/psi4/basis/jun-cc-pvdz-ri.gbs 
    atoms 6, 14                         entry O          line   188 file /usr/share/psi4/basis/jun-cc-pvdz-ri.gbs 

   => Loading Basis Set <=

    Name: CC-PVTZ-MINAO
    Role: ORBITAL
    Keyword: BASIS
    atoms 1-2, 9-10, 17                 entry C          line   119 file /usr/share/psi4/basis/cc-pvtz-minao.gbs 
    atoms 3-5, 7-8, 11-13, 15-16, 18-19 entry H          line    20 file /usr/share/psi4/basis/cc-pvtz-minao.gbs 
    atoms 6, 14                         entry O          line   179 file /usr/share/psi4/basis/cc-pvtz-minao.gbs 

	 --------------------------------------------
	                    FISAPT0                  
	                  Rob Parrish                
	 --------------------------------------------

    Do F-SAPT =         Yes
    Do Plot   =         Yes
    Memory    =       0.055 [GD]

  ==> Localization (IBO) <==

  ==> IBO Localizer 2 <==

    MinAO Basis = CC-PVTZ-MINAO
    Use Ghosts  =       FALSE
    Use Stars   =       FALSE
    Condition   =   1.000E-07
    Power       =           4
    Convergence =   1.000E-12
    Maxiter     =         200

    @IBO Iter:                   Metric       Gradient
    @IBO    1:   1.6171215706845885E+00   2.898721E+00
    @IBO    2:   1.9256056784872080E+00   2.030191E+00
    @IBO    3:   1.9803863960426866E+00   6.134988E-01
    @IBO    4:   1.9834756325016616E+00   8.433132E-02
    @IBO    5:   1.9835214120393054E+00   3.252086E-03
    @IBO    6:   1.9835214801068375E+00   7.715297E-05
    @IBO    7:   1.9835214804048258E+00   8.718771E-06
    @IBO    8:   1.9835214804103798E+00   1.182212E-06
    @IBO    9:   1.9835214804104813E+00   1.591223E-07
    @IBO   10:   1.9835214804104828E+00   2.131360E-08
    @IBO   11:   1.9835214804104826E+00   2.848806E-09
    @IBO   12:   1.9835214804104830E+00   3.804393E-10
    @IBO   13:   1.9835214804104826E+00   5.078668E-11
    @IBO   14:   1.9835214804104826E+00   6.778722E-12
    @IBO   15:   1.9835214804104828E+00   9.047048E-13

    IBO Localizer 2 converged.

  ==> Partitioning <==

   => Atomic Partitioning <= 

    Monomer A:   8 atoms
    Monomer B:   8 atoms
    Monomer C:   3 atoms

   => Link Bond Identification <=

    Link Bond Selection = AUTOMATIC

    Charge Completeness = 0.800

    Total Link Bonds = 9

    --------------------------
    N     Orb Type Aind1 Aind2
    --------------------------
    1       8   BC     9    17
    2      13   BC     9    18
    3      14   BC     9    19
    4      15   AB     8    16
    5      17   AB    14    15
    6      23   AB     6    13
    7      24   AB    10    11
    8      25   BC     9    17
    9      28   AB     4    12
    --------------------------

   => Link Bond Assignment <=

    Link Bond Assignment      = C

   => Partition Summary <=

    Monomer A:  0 charge,  20 protons,  20 electrons,  10 docc
    Monomer B:  0 charge,  16 protons,  16 electrons,   8 docc
    Monomer C:  0 charge,  22 protons,  22 electrons,  11 docc

  ==> Overlap Integrals <==

  ==> Kinetic Integrals <==

  ==> Nuclear Integrals <==

    Nuclear Repulsion Tot:   3.0673722428276045E+02 [Eh]

  ==> Coulomb Integrals <==

  ==> DiskDFJK: Density-Fitted J/K Matrices <==

    J tasked:                  Yes
    K tasked:                  Yes
    wK tasked:                  No
    OpenMP threads:              1
    Integrals threads:           1
    Memory [MiB]:              450
    Algorithm:                Core
    Integral Cache:           NONE
    Schwarz Cutoff:          1E-12
    Fitting Condition:       1E-10

   => Auxiliary Basis Set <=

  Basis Set: (JUN-CC-PVDZ AUX)
    Blend: JUN-CC-PVDZ-JKFIT
    Number of shells: 297
    Number of basis function: 829
    Number of Cartesian functions: 937
    Spherical Harmonics?: true
    Max angular momentum: 3

  ==> Relaxed SCF Equations <==

  ==> SCF A: <==

    Maxiter =         100
    E Tol   =   1.000E-08
    D Tol   =   1.000E-08

    Max DIIS Vectors = 10

    Iter   N:                        E          dE         |D|
    Iter   1:  -1.4085112614608065E+02  -1.409E+02   5.587E-03 
    Iter   2:  -1.4484115571827670E+02  -3.990E+00   7.438E-03 DIIS
    Iter   3:  -1.4520279319855010E+02  -3.616E-01   4.889E-03 DIIS
    Iter   4:  -1.4538521728143556E+02  -1.824E-01   1.776E-03 DIIS
    Iter   5:  -1.4542638761658441E+02  -4.117E-02   3.096E-04 DIIS
    Iter   6:  -1.4542783123015235E+02  -1.444E-03   7.624E-05 DIIS
    Iter   7:  -1.4542803156246217E+02  -2.003E-04   3.806E-05 DIIS
    Iter   8:  -1.4542810984899472E+02  -7.829E-05   2.160E-05 DIIS
    Iter   9:  -1.4542815535772286E+02  -4.551E-05   1.245E-05 DIIS
    Iter  10:  -1.4542818698165175E+02  -3.162E-05   1.025E-05 DIIS
    Iter  11:  -1.4542821863301273E+02  -3.165E-05   7.468E-06 DIIS
    Iter  12:  -1.4542824736351827E+02  -2.873E-05   3.782E-06 DIIS
    Iter  13:  -1.4542825245775896E+02  -5.094E-06   2.337E-06 DIIS
    Iter  14:  -1.4542825437515444E+02  -1.917E-06   1.373E-06 DIIS
    Iter  15:  -1.4542825520088249E+02  -8.257E-07   5.771E-07 DIIS
    Iter  16:  -1.4542825528369193E+02  -8.281E-08   1.751E-07 DIIS
    Iter  17:  -1.4542825528667473E+02  -2.983E-09   5.030E-08 DIIS
    Iter  18:  -1.4542825528686896E+02  -1.942E-10   2.507E-08 DIIS
    Iter  19:  -1.4542825528691415E+02  -4.519E-11   1.216E-08 DIIS
    Iter  20:  -1.4542825528693831E+02  -2.416E-11   7.065E-09 DIIS

    FISAPTSCF Converged.

    Final SCF Energy:  -1.4542825528693831E+02 [Eh]

   => Occupied Orbital Energies <=

       1  -21.002146     2  -11.656352     3  -11.608325  
       4   -1.672339     5   -1.424815     6   -1.408711  
       7   -0.866838     8   -0.830565     9   -0.802424  
      10   -0.710013  

   => Virtual Orbital Energies <=

      11   -0.406586    12   -0.196167    13   -0.184173  
      14   -0.104851    15   -0.026262    16   -0.017406  
      17    0.019193    18    0.038700    19    0.043990  
      20    0.063818    21    0.064853    22    0.078838  
      23    0.095098    24    0.107084    25    0.113465  
      26    0.124560    27    0.132563    28    0.140709  
      29    0.154652    30    0.164010    31    0.177282  
      32    0.196860    33    0.214724    34    0.221777  
      35    0.226540    36    0.237754    37    0.243813  
      38    0.254159    39    0.266013    40    0.277502  
      41    0.294429    42    0.305377    43    0.316129  
      44    0.349291    45    0.377805    46    0.399443  
      47    0.418607    48    0.427822    49    0.443856  
      50    0.461335    51    0.466404    52    0.504229  
      53    0.512485    54    0.528207    55    0.550365  
      56    0.592857    57    0.598522    58    0.615230  
      59    0.646338    60    0.653063    61    0.661129  
      62    0.683409    63    0.706520    64    0.725096  
      65    0.746361    66    0.751446    67    0.782625  
      68    0.793965    69    0.832610    70    0.856871  
      71    0.887357    72    0.902468    73    0.927695  
      74    0.959294    75    0.981195    76    0.999102  
      77    1.029547    78    1.037971    79    1.064790  
      80    1.101030    81    1.111843    82    1.150521  
      83    1.164160    84    1.210299    85    1.226513  
      86    1.240785    87    1.250428    88    1.273321  
      89    1.299723    90    1.312172    91    1.325984  
      92    1.349056    93    1.352331    94    1.370644  
      95    1.419182    96    1.433119    97    1.446066  
      98    1.468592    99    1.505914   100    1.508730  
     101    1.538564   102    1.545394   103    1.579472  
     104    1.609555   105    1.619399   106    1.637509  
     107    1.650914   108    1.664765   109    1.690542  
     110    1.709256   111    1.744841   112    1.780742  
     113    1.785483   114    1.807307   115    1.832025  
     116    1.849207   117    1.890956   118    1.904837  
     119    1.908501   120    1.932699   121    1.960415  
     122    1.987034   123    2.042498   124    2.060053  
     125    2.068386   126    2.109379   127    2.115441  
     128    2.156622   129    2.180518   130    2.202085  
     131    2.281265   132    2.303283   133    2.319504  
     134    2.325360   135    2.344704   136    2.392194  
     137    2.449250   138    2.496724   139    2.507660  
     140    2.526783   141    2.561194   142    2.588576  
     143    2.611934   144    2.634735   145    2.701611  
     146    2.744345   147    2.829694   148    2.900266  
     149    2.938384   150    2.959275   151    2.977817  
     152    3.029389   153    3.076564   154    3.148348  
     155    3.198530   156    3.227700   157    3.253718  
     158    3.290858   159    3.525846   160    3.621321  
     161    3.708124   162    4.051605   163    4.107586  
     164    4.277558   165    4.479860   166    4.513287  
     167    4.536670   168    4.680371   169    4.693798  
     170    5.320622   171    5.652294   172    6.119400  
     173    6.218106   174   18.202659   175   33.874850  

  ==> SCF B: <==

    Maxiter =         100
    E Tol   =   1.000E-08
    D Tol   =   1.000E-08

    Max DIIS Vectors = 10

    Iter   N:                        E          dE         |D|
    Iter   1:  -1.6566523594439184E+02  -1.657E+02   1.423E-02 
    Iter   2:  -1.6713847187574396E+02  -1.473E+00   1.706E-03 DIIS
    Iter   3:  -1.6717855648172656E+02  -4.008E-02   2.611E-04 DIIS
    Iter   4:  -1.6718101139369563E+02  -2.455E-03   1.148E-04 DIIS
    Iter   5:  -1.6718199570428027E+02  -9.843E-04   6.076E-05 DIIS
    Iter   6:  -1.6718241337560775E+02  -4.177E-04   2.540E-05 DIIS
    Iter   7:  -1.6718251428345354E+02  -1.009E-04   1.751E-05 DIIS
    Iter   8:  -1.6718258296597665E+02  -6.868E-05   1.508E-05 DIIS
    Iter   9:  -1.6718275782494601E+02  -1.749E-04   5.296E-06 DIIS
    Iter  10:  -1.6718277730439894E+02  -1.948E-05   9.990E-07 DIIS
    Iter  11:  -1.6718277751598026E+02  -2.116E-07   2.206E-07 DIIS
    Iter  12:  -1.6718277751876161E+02  -2.781E-09   1.058E-07 DIIS
    Iter  13:  -1.6718277751959835E+02  -8.367E-10   5.483E-08 DIIS
    Iter  14:  -1.6718277751991209E+02  -3.137E-10   4.855E-09 DIIS

    FISAPTSCF Converged.

    Final SCF Energy:  -1.6718277751991209E+02 [Eh]

   => Occupied Orbital Energies <=

       1  -26.673026     2  -15.991859     3  -11.176374  
       4   -1.548273     5   -1.019712     6   -0.834726  
       7   -0.827982     8   -0.658727  

   => Virtual Orbital Energies <=

       9   -0.121936    10   -0.044355    11   -0.023674  
      12    0.046868    13    0.056209    14    0.065970  
      15    0.074224    16    0.081352    17    0.082593  
      18    0.093920    19    0.100997    20    0.108787  
      21    0.115203    22    0.123641    23    0.143057  
      24    0.152403    25    0.163468    26    0.175042  
      27    0.178173    28    0.190135    29    0.207519  
      30    0.213571    31    0.231850    32    0.237729  
      33    0.242460    34    0.249171    35    0.265152  
      36    0.276867    37    0.293669    38    0.317022  
      39    0.323744    40    0.346954    41    0.367507  
      42    0.373039    43    0.392539    44    0.403273  
      45    0.408399    46    0.452386    47    0.468344  
      48    0.485578    49    0.521460    50    0.538033  
      51    0.555624    52    0.590357    53    0.607089  
      54    0.619636    55    0.640211    56    0.649499  
      57    0.666985    58    0.671764    59    0.701026  
      60    0.726502    61    0.754692    62    0.762325  
      63    0.774118    64    0.798550    65    0.806851  
      66    0.829436    67    0.862401    68    0.866132  
      69    0.904312    70    0.923057    71    0.930457  
      72    0.958425    73    0.977127    74    1.026452  
      75    1.034408    76    1.065087    77    1.111723  
      78    1.146378    79    1.166683    80    1.183412  
      81    1.214304    82    1.226002    83    1.240630  
      84    1.265721    85    1.285431    86    1.305471  
      87    1.346258    88    1.379035    89    1.403368  
      90    1.416260    91    1.434790    92    1.478725  
      93    1.485755    94    1.516212    95    1.532995  
      96    1.593902    97    1.597423    98    1.627444  
      99    1.642059   100    1.681268   101    1.685560  
     102    1.720353   103    1.747430   104    1.776488  
     105    1.784969   106    1.803232   107    1.816548  
     108    1.842318   109    1.860306   110    1.884792  
     111    1.899734   112    1.919523   113    1.959363  
     114    1.981874   115    2.015298   116    2.019310  
     117    2.062232   118    2.082522   119    2.093312  
     120    2.128773   121    2.139285   122    2.159680  
     123    2.184624   124    2.189675   125    2.240835  
     126    2.247542   127    2.267674   128    2.322459  
     129    2.341517   130    2.384692   131    2.393904  
     132    2.424598   133    2.455037   134    2.472044  
     135    2.493122   136    2.523154   137    2.544683  
     138    2.554700   139    2.592692   140    2.621722  
     141    2.671692   142    2.680771   143    2.739886  
     144    2.777503   145    2.844114   146    2.860617  
     147    2.895659   148    2.935206   149    2.971633  
     150    2.980448   151    3.016662   152    3.033662  
     153    3.083149   154    3.126544   155    3.138985  
     156    3.236942   157    3.351922   158    3.463221  
     159    3.511323   160    3.616040   161    4.198714  
     162    4.284788   163    4.290499   164    4.492230  
     165    4.572742   166    4.607635   167    4.670732  
     168    4.865571   169    5.197013   170    5.368630  
     171    5.485697   172    8.306785   173   18.328752  
     174   19.070382   175   26.678759  

  ==> Frozen Core <==


    ------------------
    Range      A     B
    ------------------
    nbf      186   186
    nmo      175   175
    nocc      10     8
    nvir     165   167
    nfocc      3     3
    naocc      7     5
    navir    165   167
    nfvir      0     0
    ------------------

  ==> Unification <==

  ==> dHF <==

    E ABC(HF) =  -3.4417662013607082E+02 [Eh]
    E AC(0)   =  -2.0096079412035738E+02 [Eh]
    E BC(0)   =  -2.2860226729908268E+02 [Eh]
    E A(0)    =  -1.0515654748262446E+02 [Eh]
    E B(0)    =  -9.8465527325064031E+01 [Eh]
    E AC(HF)  =  -1.9638366497949971E+02 [Eh]
    E BC(HF)  =  -2.2708472572356240E+02 [Eh]
    E AB(HF)  =  -1.9136128861879428E+02 [Eh]
    E A(HF)   =  -1.2888022530675232E+02 [Eh]
    E B(HF)   =  -9.8435711843045297E+01 [Eh]
    E C       =  -4.3337122035979270E+01 [Eh]
    E HF      =   4.2049319247389967E+01 [Eh]

  ==> Electrostatics <==

    Elst10,r            =    32.926875556357 [Eh]

  ==> Exchange <==

    Exch10(S^2)         =     2.059857871038 [Eh]
    Exch10              =    10.248412701900 [Eh]

  ==> Induction <==

    Ind20,u (A<-B)      =    -2.100808468402 [Eh]
    Ind20,u (B<-A)      =    -1.083628646509 [Eh]
    Ind20,u             =    -3.184437114911 [Eh]
    Exch-Ind20,u (A<-B) =    -1.725524841965 [Eh]
    Exch-Ind20,u (B<-A) =    -0.135554256861 [Eh]
    Exch-Ind20,u        =    -1.861079098826 [Eh]

  ==> CPHF Iterations <==

    Maxiter     =         100
    Convergence =   1.000E-08

    -----------------------------------------
    Iter   Monomer A    Monomer B    Time [s]
    -----------------------------------------
    1      2.306E-02    9.407E-02           1
    2      4.925E-03    2.697E-02           2
    3      3.506E-03    2.994E-02           2
    4      3.187E-03    2.286E-02           3
    5      3.378E-03    1.783E-02           3
    6      1.784E-03    4.391E-03           4
    7      7.142E-04    6.126E-04           4
    8      6.683E-04    9.598E-05           5
    9      2.856E-04    2.553E-05           5
    10     7.518E-05    1.226E-05           6
    11     4.420E-05    2.171E-06           7
    12     2.990E-05    3.470E-07           7
    13     9.328E-06    6.895E-08           8
    14     3.576E-06    2.780E-08           8
    15     9.147E-07    9.918E-09*          9
    16     2.467E-07    9.918E-09*          9
    17     5.738E-08    9.918E-09*         10
    18     1.306E-08    9.918E-09*         10
    19     3.983E-09*   9.918E-09*         10
    -----------------------------------------

    Ind20,r (A<-B)      =    -1.909449321535 [Eh]
    Ind20,r (B<-A)      =    -1.052436077804 [Eh]
    Ind20,r             =    -2.961885399339 [Eh]
    Exch-Ind20,r (A<-B) =    -1.567644301023 [Eh]
    Exch-Ind20,r (B<-A) =    -0.130694601198 [Eh]
    Exch-Ind20,r        =    -1.698338902220 [Eh]

  ==> F-SAPT Localization (IBO) <==

  Local Orbitals for Monomer A:

  ==> IBO Localizer 2 <==

    MinAO Basis = CC-PVTZ-MINAO
    Use Ghosts  =       FALSE
    Use Stars   =       FALSE
    Condition   =   1.000E-07
    Power       =           4
    Convergence =   1.000E-12
    Maxiter     =        1000

    @IBO Iter:                   Metric       Gradient
    @IBO    1:   1.4605011603907663E+00   1.471604E+00
    @IBO    2:   1.5564455500540664E+00   1.262152E-01
    @IBO    3:   1.5568952741017119E+00   4.295268E-03
    @IBO    4:   1.5568971836159413E+00   3.392794E-04
    @IBO    5:   1.5568971915800220E+00   2.287175E-05
    @IBO    6:   1.5568971916162688E+00   1.542489E-06
    @IBO    7:   1.5568971916164340E+00   1.039800E-07
    @IBO    8:   1.5568971916164347E+00   7.005890E-09
    @IBO    9:   1.5568971916164347E+00   4.719468E-10
    @IBO   10:   1.5568971916164347E+00   3.178752E-11
    @IBO   11:   1.5568971916164345E+00   2.140729E-12
    @IBO   12:   1.5568971916164347E+00   1.441417E-13

    IBO Localizer 2 converged.

  Local Orbitals for Monomer B:

  ==> IBO Localizer 2 <==

    MinAO Basis = CC-PVTZ-MINAO
    Use Ghosts  =       FALSE
    Use Stars   =       FALSE
    Condition   =   1.000E-07
    Power       =           4
    Convergence =   1.000E-12
    Maxiter     =        1000

    @IBO Iter:                   Metric       Gradient
    @IBO    1:   1.6528012721051253E+00   7.149527E-01
    @IBO    2:   1.6573937966860677E+00   2.643773E-01
    @IBO    3:   1.6579243474362226E+00   6.211316E-02
    @IBO    4:   1.6579522331966470E+00   7.203855E-06
    @IBO    5:   1.6579522331970318E+00   2.772240E-10
    @IBO    6:   1.6579522331970318E+00   3.621575E-15

    IBO Localizer 2 converged.

  ==> F-SAPT Electrostatics <==

  DFHelper Memory: AOs need 0.224 GiB; user supplied 0.439 GiB. Using in-core AOs.

  ==> DFHelper <==
    NBF:                             186
    NAux:                            829
    Schwarz Cutoff:                1E-12
    Mask sparsity (%):                 3
    DFH Avail. Memory [GiB]:       0.439
    OpenMP threads:                    1
    Algorithm:                DIRECT_iaQ
    AO Core:                        True
    MO Core:                       False
    Hold Metric:                   False
    Metric Power:                 -0.500
    Fitting Condition:             1E-12
    Q Shell Max:                       7


    Elst10,r            =    32.926875556342 [Eh]

  ==> F-SAPT Exchange <==

    Exch10(S^2)         =     2.059857871038 [Eh]

    Scaling F-SAPT Exch10(S^2) by   4.975E+00 to match Exch10

  ==> F-SAPT Induction <==

    Ind20,u (A<-B)      =    -2.100808468408 [Eh]
    Ind20,u (B<-A)      =    -1.083628646508 [Eh]
    Ind20,u             =    -3.184437114917 [Eh]
    Exch-Ind20,u (A<-B) =    -1.725524841968 [Eh]
    Exch-Ind20,u (B<-A) =    -0.135554256861 [Eh]
    Exch-Ind20,u        =    -1.861079098830 [Eh]

    Scaling for delta HF        =   2.416E-01
    Scaling for response (A<-B) =   9.087E-01
    Scaling for response (B<-A) =   9.704E-01
    Scaling for total (A<-B)    =   2.196E-01
    Scaling for total (B<-A)    =   2.345E-01

  ==> F-SAPT Dispersion <==

  DFHelper Memory: AOs need 0.169 GiB; user supplied 0.438 GiB. Using in-core AOs.

  ==> DFHelper <==
    NBF:                             186
    NAux:                            623
    Schwarz Cutoff:                1E-12
    Mask sparsity (%):                 3
    DFH Avail. Memory [GiB]:       0.438
    OpenMP threads:                    1
    Algorithm:                DIRECT_iaQ
    AO Core:                        True
    MO Core:                       False
    Hold Metric:                   False
    Metric Power:                 -0.500
    Fitting Condition:             1E-12
    Q Shell Max:                       7


    Disp20              =    -0.006356750056 [Eh]
    Exch-Disp20         =     0.001085752854 [Eh]

  ==> F-SAPT Output <==

    F-SAPT Data Filepath = fsapt/

  ==> Scalar Field Plots <==

    F-SAPT Plot Filepath = plot/

  ==> CubicScalarGrid <==

    Filepath     = plot/
    Total Points =           556924
    XYZ Blocking =               10
    X Points     =               74
    Y Points     =              106
    Z Points     =               71
    X Spacing    =        2.000E-01
    Y Spacing    =        2.000E-01
    Z Spacing    =        2.000E-01
    X Minimum    =       -3.963E+00
    Y Minimum    =       -7.548E+00
    Z Minimum    =       -7.038E+00
    X Maximum    =        1.064E+01
    Y Maximum    =        1.345E+01
    Z Maximum    =        6.962E+00

  Basis Set: JUN-CC-PVDZ
    Blend: JUN-CC-PVDZ
    Number of shells: 92
    Number of basis function: 186
    Number of Cartesian functions: 193
    Spherical Harmonics?: true
    Max angular momentum: 2

  ==> Results <==


    SAPT Results  
  --------------------------------------------------------------------------------------------------------
    Electrostatics              32926.87555636 [mEh]   20661.92635351 [kcal/mol]   86449.49986308 [kJ/mol]
      Elst10,r                  32926.87555636 [mEh]   20661.92635351 [kcal/mol]   86449.49986308 [kJ/mol]

    Exchange                    10248.41270190 [mEh]    6430.97606162 [kcal/mol]   26907.20384184 [kJ/mol]
      Exch10                    10248.41270190 [mEh]    6430.97606162 [kcal/mol]   26907.20384184 [kJ/mol]
      Exch10(S^2)                2059.85787104 [mEh]    1292.58032871 [kcal/mol]    5408.15609533 [kJ/mol]

    Induction                   -1125.96901087 [mEh]    -706.55622150 [kcal/mol]   -2956.23123075 [kJ/mol]
      Ind20,r                   -2961.88539934 [mEh]   -1858.61114833 [kcal/mol]   -7776.42904461 [kJ/mol]
      Exch-Ind20,r              -1698.33890222 [mEh]   -1065.72375083 [kcal/mol]   -4458.98817346 [kJ/mol]
      delta HF,r (2)             3534.25529069 [mEh]    2217.77867766 [kcal/mol]    9279.18598732 [kJ/mol]
      Induction (A<-B)           -840.10970579 [mEh]    -527.17679939 [kcal/mol]   -2205.70772866 [kJ/mol]
      Induction (B<-A)           -285.85930508 [mEh]    -179.37942211 [kcal/mol]    -750.52350209 [kJ/mol]

    Dispersion                     -5.27099720 [mEh]      -3.30760068 [kcal/mol]     -13.83900125 [kJ/mol]
      Disp20                       -6.35675006 [mEh]      -3.98892088 [kcal/mol]     -16.68964497 [kJ/mol]
      Exch-Disp20                   1.08575285 [mEh]       0.68132020 [kcal/mol]       2.85064373 [kJ/mol]

  Total HF                      42049.31924739 [mEh]   26386.34619363 [kcal/mol]  110400.47247416 [kJ/mol]
  Total SAPT0                   42044.04825019 [mEh]   26383.03859295 [kcal/mol]  110386.63347291 [kJ/mol]

  --------------------------------------------------------------------------------------------------------
    Han Solo: This is *not* gonna work.
    Luke Skywalker: Why didn't you say so before?
    Han Solo: I *did* say so before.

    Psi4 stopped on: Friday, 29 September 2023 12:28PM
    Psi4 wall time for execution: 0:02:25.90

*** Psi4 exiting successfully. Buy a developer a beer!
